 Entering Gaussian System, Link 0=g09
 Input=gaussian.com
 Output=gaussian.log
 Initial command:
 /home/software/qc-prog/g09/l1.exe "/tmp/Gau-51870.inp" -scrdir="/tmp/"
 Entering Link 1 = /home/software/qc-prog/g09/l1.exe PID=     51872.
  
 Copyright (c) 1988,1990,1992,1993,1995,1998,2003,2009,2013,
            Gaussian, Inc.  All Rights Reserved.
  
 This is part of the Gaussian(R) 09 program.  It is based on
 the Gaussian(R) 03 system (copyright 2003, Gaussian, Inc.),
 the Gaussian(R) 98 system (copyright 1998, Gaussian, Inc.),
 the Gaussian(R) 94 system (copyright 1995, Gaussian, Inc.),
 the Gaussian 92(TM) system (copyright 1992, Gaussian, Inc.),
 the Gaussian 90(TM) system (copyright 1990, Gaussian, Inc.),
 the Gaussian 88(TM) system (copyright 1988, Gaussian, Inc.),
 the Gaussian 86(TM) system (copyright 1986, Carnegie Mellon
 University), and the Gaussian 82(TM) system (copyright 1983,
 Carnegie Mellon University). Gaussian is a federally registered
 trademark of Gaussian, Inc.
  
 This software contains proprietary and confidential information,
 including trade secrets, belonging to Gaussian, Inc.
  
 This software is provided under written license and may be
 used, copied, transmitted, or stored only in accord with that
 written license.
  
 The following legend is applicable only to US Government
 contracts under FAR:
  
                    RESTRICTED RIGHTS LEGEND
  
 Use, reproduction and disclosure by the US Government is
 subject to restrictions as set forth in subparagraphs (a)
 and (c) of the Commercial Computer Software - Restricted
 Rights clause in FAR 52.227-19.
  
 Gaussian, Inc.
 340 Quinnipiac St., Bldg. 40, Wallingford CT 06492
  
  
 ---------------------------------------------------------------
 Warning -- This program may not be used in any manner that
 competes with the business of Gaussian, Inc. or will provide
 assistance to any competitor of Gaussian, Inc.  The licensee
 of this program is prohibited from giving any competitor of
 Gaussian, Inc. access to this program.  By using this program,
 the user acknowledges that Gaussian, Inc. is engaged in the
 business of creating and licensing software in the field of
 computational chemistry and represents and warrants to the
 licensee that it is not a competitor of Gaussian, Inc. and that
 it will not use this program in any manner prohibited above.
 ---------------------------------------------------------------
  

 Cite this work as:
 Gaussian 09, Revision D.01,
 M. J. Frisch, G. W. Trucks, H. B. Schlegel, G. E. Scuseria, 
 M. A. Robb, J. R. Cheeseman, G. Scalmani, V. Barone, B. Mennucci, 
 G. A. Petersson, H. Nakatsuji, M. Caricato, X. Li, H. P. Hratchian, 
 A. F. Izmaylov, J. Bloino, G. Zheng, J. L. Sonnenberg, M. Hada, 
 M. Ehara, K. Toyota, R. Fukuda, J. Hasegawa, M. Ishida, T. Nakajima, 
 Y. Honda, O. Kitao, H. Nakai, T. Vreven, J. A. Montgomery, Jr., 
 J. E. Peralta, F. Ogliaro, M. Bearpark, J. J. Heyd, E. Brothers, 
 K. N. Kudin, V. N. Staroverov, T. Keith, R. Kobayashi, J. Normand, 
 K. Raghavachari, A. Rendell, J. C. Burant, S. S. Iyengar, J. Tomasi, 
 M. Cossi, N. Rega, J. M. Millam, M. Klene, J. E. Knox, J. B. Cross, 
 V. Bakken, C. Adamo, J. Jaramillo, R. Gomperts, R. E. Stratmann, 
 O. Yazyev, A. J. Austin, R. Cammi, C. Pomelli, J. W. Ochterski, 
 R. L. Martin, K. Morokuma, V. G. Zakrzewski, G. A. Voth, 
 P. Salvador, J. J. Dannenberg, S. Dapprich, A. D. Daniels, 
 O. Farkas, J. B. Foresman, J. V. Ortiz, J. Cioslowski, 
 and D. J. Fox, Gaussian, Inc., Wallingford CT, 2013.
 
 ******************************************
 Gaussian 09:  EM64L-G09RevD.01 24-Apr-2013
                18-Feb-2019 
 ******************************************
 ---------------------
 # bp86 / def2svp freq
 ---------------------
 1/10=4,30=1,38=1/1,3;
 2/12=2,17=6,18=5,40=1/2;
 3/5=43,7=101,11=2,16=1,25=1,30=1,71=2,74=404,140=1/1,2,3;
 4//1;
 5/5=2,38=5,98=1/2;
 8/6=4,10=90,11=11/1;
 11/6=1,8=1,9=11,15=111,16=1/1,2,10;
 10/6=1/2;
 6/7=2,8=2,9=2,10=2,18=1,28=1/1;
 7/8=1,10=1,25=1/1,2,3,16;
 1/10=4,30=1/3;
 99//99;
 ---
 bla
 ---
 Symbolic Z-matrix:
 Charge =  0 Multiplicity = 1
 O                     0.0443    0.0443    0. 
 H                     1.0146   -0.0589    0. 
 H                    -0.0589    1.0146    0. 
 

 GradGradGradGradGradGradGradGradGradGradGradGradGradGradGradGradGradGrad
 Berny optimization.
 Initialization pass.
 Trust Radius=3.00D-01 FncErr=1.00D-07 GrdErr=1.00D-07
 Number of steps in this run=      2 maximum allowed number of steps=      2.
 GradGradGradGradGradGradGradGradGradGradGradGradGradGradGradGradGradGrad

                          Input orientation:                          
 ---------------------------------------------------------------------
 Center     Atomic      Atomic             Coordinates (Angstroms)
 Number     Number       Type             X           Y           Z
 ---------------------------------------------------------------------
      1          8           0        0.044299    0.044299    0.000000
      2          1           0        1.014600   -0.058899    0.000000
      3          1           0       -0.058899    1.014600    0.000000
 ---------------------------------------------------------------------
                    Distance matrix (angstroms):
                    1          2          3
     1  O    0.000000
     2  H    0.975773   0.000000
     3  H    0.975773   1.518157   0.000000
 Stoichiometry    H2O
 Framework group  C2V[C2(O),SGV(H2)]
 Deg. of freedom     2
 Full point group                 C2V     NOp   4
 Largest Abelian subgroup         C2V     NOp   4
 Largest concise Abelian subgroup C2      NOp   2
                         Standard orientation:                         
 ---------------------------------------------------------------------
 Center     Atomic      Atomic             Coordinates (Angstroms)
 Number     Number       Type             X           Y           Z
 ---------------------------------------------------------------------
      1          8           0        0.000000    0.000000    0.122627
      2          1           0        0.000000    0.759078   -0.490508
      3          1           0        0.000000   -0.759078   -0.490508
 ---------------------------------------------------------------------
 Rotational constants (GHZ):    750.9933281    435.1397566    275.5062296
 Standard basis: def2SVP (5D, 7F)
 There are    12 symmetry adapted cartesian basis functions of A1  symmetry.
 There are     2 symmetry adapted cartesian basis functions of A2  symmetry.
 There are     4 symmetry adapted cartesian basis functions of B1  symmetry.
 There are     7 symmetry adapted cartesian basis functions of B2  symmetry.
 There are    11 symmetry adapted basis functions of A1  symmetry.
 There are     2 symmetry adapted basis functions of A2  symmetry.
 There are     4 symmetry adapted basis functions of B1  symmetry.
 There are     7 symmetry adapted basis functions of B2  symmetry.
    24 basis functions,    39 primitive gaussians,    25 cartesian basis functions
     5 alpha electrons        5 beta electrons
       nuclear repulsion energy         9.0256157567 Hartrees.
 NAtoms=    3 NActive=    3 NUniq=    2 SFac= 2.25D+00 NAtFMM=   60 NAOKFM=F Big=F
 Integral buffers will be    131072 words long.
 Raffenetti 2 integral format.
 Two-electron integral symmetry is turned on.
 One-electron integrals computed using PRISM.
   4 Symmetry operations used in ECPInt.
 ECPInt:  NShTT=      78 NPrTT=     272 LenC2=      79 LenP2D=     271.
 LDataN:  DoStor=T MaxTD1= 4 Len=   56
 NBasis=    24 RedAO= T EigKep=  6.09D-02  NBF=    11     2     4     7
 NBsUse=    24 1.00D-06 EigRej= -1.00D+00 NBFU=    11     2     4     7
 ExpMin= 1.22D-01 ExpMax= 2.27D+03 ExpMxC= 3.41D+02 IAcc=1 IRadAn=         1 AccDes= 0.00D+00
 Harris functional with IExCor=  404 and IRadAn=       1 diagonalized for initial guess.
 HarFok:  IExCor=  404 AccDes= 0.00D+00 IRadAn=         1 IDoV= 1 UseB2=F ITyADJ=14
 ICtDFT=  3500011 ScaDFX=  1.000000  1.000000  1.000000  1.000000
 FoFCou: FMM=F IPFlag=           0 FMFlag=      100000 FMFlg1=           0
         NFxFlg=           0 DoJE=T BraDBF=F KetDBF=T FulRan=T
         wScrn=  0.000000 ICntrl=     500 IOpCl=  0 I1Cent=   200000004 NGrid=           0
         NMat0=    1 NMatS0=      1 NMatT0=    0 NMatD0=    1 NMtDS0=    0 NMtDT0=    0
 Petite list used in FoFCou.
 Initial guess orbital symmetries:
       Occupied  (A1) (A1) (B2) (A1) (B1)
       Virtual   (A1) (B2) (B2) (A1) (B1) (A1) (B2) (A1) (A2) (A1)
                 (B1) (B2) (B2) (A1) (B1) (A2) (A1) (A1) (B2)
 The electronic state of the initial guess is 1-A1.
 Keep J ints in memory in symmetry-blocked form, NReq=926891.
 Requested convergence on RMS density matrix=1.00D-08 within 128 cycles.
 Requested convergence on MAX density matrix=1.00D-06.
 Requested convergence on             energy=1.00D-06.
 No special actions if energy rises.
 Integral accuracy reduced to 1.0D-05 until final iterations.
 Initial convergence to 1.0D-05 achieved.  Increase integral accuracy.
 SCF Done:  E(RB-P86) =  -76.3592160711     A.U. after   10 cycles
            NFock= 10  Conv=0.80D-08     -V/T= 2.0077
 Range of M.O.s used for correlation:     1    24
 NBasis=    24 NAE=     5 NBE=     5 NFC=     0 NFV=     0
 NROrb=     24 NOA=     5 NOB=     5 NVA=    19 NVB=    19
   4 Symmetry operations used in ECPInt.
 ECPInt:  NShTT=      78 NPrTT=     272 LenC2=      79 LenP2D=     271.
 LDataN:  DoStor=T MaxTD1= 5 Len=  102
 Symmetrizing basis deriv contribution to polar:
 IMax=3 JMax=2 DiffMx= 0.00D+00
 G2DrvN: will do     4 centers at a time, making    1 passes.
 Calling FoFCou, ICntrl=  3507 FMM=F I1Cent=   0 AccDes= 0.00D+00.
 End of G2Drv F.D. properties file   721 does not exist.
 End of G2Drv F.D. properties file   722 does not exist.
 End of G2Drv F.D. properties file   788 does not exist.
          IDoAtm=111
          Differentiating once with respect to electric field.
                with respect to dipole field.
          Differentiating once with respect to nuclear coordinates.
 Keep J ints in memory in symmetry-blocked form, NReq=905547.
          There are     9 degrees of freedom in the 1st order CPHF.  IDoFFX=4 NUNeed=     9.
      9 vectors produced by pass  0 Test12= 1.06D-15 1.11D-08 XBig12= 4.52D+00 1.55D+00.
 AX will form     9 AO Fock derivatives at one time.
      9 vectors produced by pass  1 Test12= 1.06D-15 1.11D-08 XBig12= 8.69D-01 4.58D-01.
      9 vectors produced by pass  2 Test12= 1.06D-15 1.11D-08 XBig12= 5.97D-03 3.42D-02.
      9 vectors produced by pass  3 Test12= 1.06D-15 1.11D-08 XBig12= 4.21D-06 9.59D-04.
      5 vectors produced by pass  4 Test12= 1.06D-15 1.11D-08 XBig12= 1.09D-09 1.20D-05.
      1 vectors produced by pass  5 Test12= 1.06D-15 1.11D-08 XBig12= 4.98D-14 9.08D-08.
 InvSVY:  IOpt=1 It=  1 EMax= 8.28D-17
 Solved reduced A of dimension    42 with     9 vectors.
 Isotropic polarizability for W=    0.000000        5.46 Bohr**3.
 End of Minotr F.D. properties file   721 does not exist.
 End of Minotr F.D. properties file   722 does not exist.
 End of Minotr F.D. properties file   788 does not exist.

 **********************************************************************

            Population analysis using the SCF density.

 **********************************************************************

 Orbital symmetries:
       Occupied  (A1) (A1) (B2) (A1) (B1)
       Virtual   (A1) (B2) (B2) (A1) (A1) (B1) (B2) (A1) (A2) (A1)
                 (B1) (B2) (B2) (A1) (B1) (A2) (A1) (A1) (B2)
 The electronic state is 1-A1.
 Alpha  occ. eigenvalues --  -18.76254  -0.89046  -0.45487  -0.31337  -0.23288
 Alpha virt. eigenvalues --    0.02910   0.10551   0.50695   0.57053   0.86197
 Alpha virt. eigenvalues --    0.86254   0.95477   1.04151   1.28612   1.32624
 Alpha virt. eigenvalues --    1.47343   1.71676   2.09968   2.15018   2.86603
 Alpha virt. eigenvalues --    2.89121   3.07931   3.37517   3.71954
          Condensed to atoms (all electrons):
               1          2          3
     1  O    7.663789   0.317922   0.317922
     2  H    0.317922   0.563195  -0.030933
     3  H    0.317922  -0.030933   0.563195
 Mulliken charges:
               1
     1  O   -0.299632
     2  H    0.149816
     3  H    0.149816
 Sum of Mulliken charges =   0.00000
 Mulliken charges with hydrogens summed into heavy atoms:
               1
     1  O    0.000000
 APT charges:
               1
     1  O   -0.451535
     2  H    0.225767
     3  H    0.225767
 Sum of APT charges =   0.00000
 APT charges with hydrogens summed into heavy atoms:
               1
     1  O    0.000000
 Electronic spatial extent (au):  <R**2>=             19.1812
 Charge=              0.0000 electrons
 Dipole moment (field-independent basis, Debye):
    X=              0.0000    Y=              0.0000    Z=             -1.9845  Tot=              1.9845
 Quadrupole moment (field-independent basis, Debye-Ang):
   XX=             -7.0297   YY=             -4.4083   ZZ=             -5.9371
   XY=              0.0000   XZ=              0.0000   YZ=              0.0000
 Traceless Quadrupole moment (field-independent basis, Debye-Ang):
   XX=             -1.2380   YY=              1.3834   ZZ=             -0.1454
   XY=              0.0000   XZ=              0.0000   YZ=              0.0000
 Octapole moment (field-independent basis, Debye-Ang**2):
  XXX=              0.0000  YYY=              0.0000  ZZZ=             -1.0432  XYY=              0.0000
  XXY=              0.0000  XXZ=             -0.2690  XZZ=              0.0000  YZZ=              0.0000
  YYZ=             -1.0953  XYZ=              0.0000
 Hexadecapole moment (field-independent basis, Debye-Ang**3):
 XXXX=             -4.8754 YYYY=             -6.3193 ZZZZ=             -6.2608 XXXY=              0.0000
 XXXZ=              0.0000 YYYX=              0.0000 YYYZ=              0.0000 ZZZX=              0.0000
 ZZZY=              0.0000 XXYY=             -2.1138 XXZZ=             -1.9135 YYZZ=             -1.7533
 XXYZ=              0.0000 YYXZ=              0.0000 ZZXY=              0.0000
 N-N= 9.025615756652D+00 E-N=-1.985521326449D+02  KE= 7.577862683560D+01
 Symmetry A1   KE= 6.763806585589D+01
 Symmetry A2   KE= 4.115189756641D-35
 Symmetry B1   KE= 4.609673558842D+00
 Symmetry B2   KE= 3.530887420873D+00
  Exact polarizability:   3.174   0.000   7.482   0.000   0.000   5.719
 Approx polarizability:   3.684   0.000  10.509   0.000   0.000   8.219
   4 Symmetry operations used in ECPInt.
 ECPInt:  NShTT=      78 NPrTT=     272 LenC2=      79 LenP2D=     271.
 LDataN:  DoStor=T MaxTD1= 6 Len=  172
 Calling FoFJK, ICntrl=    100527 FMM=F ISym2X=1 I1Cent= 0 IOpClX= 0 NMat=1 NMatS=1 NMatT=0.
 Full mass-weighted force constant matrix:
 Low frequencies ---  -54.0256  -53.2286   -0.0015   -0.0011   -0.0002   25.3077
 Low frequencies --- 1607.7879 3678.7290 3777.6663
 Diagonal vibrational polarizability:
        0.0000000       0.0384656       0.5047800
 Harmonic frequencies (cm**-1), IR intensities (KM/Mole), Raman scattering
 activities (A**4/AMU), depolarization ratios for plane and unpolarized
 incident light, reduced masses (AMU), force constants (mDyne/A),
 and normal coordinates:
                      1                      2                      3
                     A1                     A1                     B2
 Frequencies --   1607.7879              3678.7290              3777.6662
 Red. masses --      1.0814                 1.0464                 1.0795
 Frc consts  --      1.6470                 8.3433                 9.0765
 IR Inten    --     48.0035                 2.5320                20.3980
  Atom  AN      X      Y      Z        X      Y      Z        X      Y      Z
     1   8     0.00   0.00   0.07     0.00   0.00   0.05     0.00   0.07   0.00
     2   1     0.00  -0.43  -0.56     0.00   0.58  -0.40     0.00  -0.55   0.44
     3   1     0.00   0.43  -0.56     0.00  -0.58  -0.40     0.00  -0.55  -0.44

 -------------------
 - Thermochemistry -
 -------------------
 Temperature   298.150 Kelvin.  Pressure   1.00000 Atm.
 Atom     1 has atomic number  8 and mass  15.99491
 Atom     2 has atomic number  1 and mass   1.00783
 Atom     3 has atomic number  1 and mass   1.00783
 Molecular mass:    18.01056 amu.
 Principal axes and moments of inertia in atomic units:
                           1         2         3
     Eigenvalues --     2.40314   4.14750   6.55064
           X            0.00000   0.00000   1.00000
           Y            1.00000   0.00000   0.00000
           Z            0.00000   1.00000   0.00000
 This molecule is an asymmetric top.
 Rotational symmetry number  2.
 Rotational temperatures (Kelvin)     36.04195    20.88339    13.22220
 Rotational constants (GHZ):         750.99333   435.13976   275.50623
 Zero-point vibrational energy      54215.9 (Joules/Mol)
                                   12.95790 (Kcal/Mol)
 Vibrational temperatures:   2313.25  5292.86  5435.21
          (Kelvin)
 
 Zero-point correction=                           0.020650 (Hartree/Particle)
 Thermal correction to Energy=                    0.023485
 Thermal correction to Enthalpy=                  0.024430
 Thermal correction to Gibbs Free Energy=         0.002957
 Sum of electronic and zero-point Energies=            -76.338566
 Sum of electronic and thermal Energies=               -76.335731
 Sum of electronic and thermal Enthalpies=             -76.334786
 Sum of electronic and thermal Free Energies=          -76.356259
 
                     E (Thermal)             CV                S
                      KCal/Mol        Cal/Mol-Kelvin    Cal/Mol-Kelvin
 Total                   14.737              6.013             45.193
 Electronic               0.000              0.000              0.000
 Translational            0.889              2.981             34.608
 Rotational               0.889              2.981             10.578
 Vibrational             12.960              0.051              0.007
                       Q            Log10(Q)             Ln(Q)
 Total Bot       0.436493D-01         -1.360023         -3.131569
 Total V=0       0.137459D+09          8.138172         18.738834
 Vib (Bot)       0.317680D-09         -9.498010        -21.869976
 Vib (V=0)       0.100043D+01          0.000186          0.000427
 Electronic      0.100000D+01          0.000000          0.000000
 Translational   0.300432D+07          6.477746         14.915562
 Rotational      0.457342D+02          1.660241          3.822845
 ***** Axes restored to original set *****
 -------------------------------------------------------------------
 Center     Atomic                   Forces (Hartrees/Bohr)
 Number     Number              X              Y              Z
 -------------------------------------------------------------------
      1        8           0.000010097    0.000010097    0.000000000
      2        1          -0.000022413    0.000012316    0.000000000
      3        1           0.000012316   -0.000022413    0.000000000
 -------------------------------------------------------------------
 Cartesian Forces:  Max     0.000022413 RMS     0.000012961

 GradGradGradGradGradGradGradGradGradGradGradGradGradGradGradGradGradGrad
 Berny optimization.
 Search for a local minimum.
 Step number   1 out of a maximum of    2
 All quantities printed in internal units (Hartrees-Bohrs-Radians)
 Second derivative matrix not updated -- analytic derivatives used.
 The second derivative matrix:
                          X1        Y1        Z1        X2        Y2
           X1           0.52377
           Y1          -0.08804   0.52377
           Z1           0.00000   0.00000  -0.00020
           X2          -0.47943   0.07371   0.00000   0.49080
           Y2           0.01433  -0.04434   0.00000  -0.06440   0.05571
           Z2           0.00000   0.00000   0.00010   0.00000   0.00000
           X3          -0.04434   0.01433   0.00000  -0.01137   0.05007
           Y3           0.07371  -0.47943   0.00000  -0.00931  -0.01137
           Z3           0.00000   0.00000   0.00010   0.00000   0.00000
                          Z2        X3        Y3        Z3
           Z2          -0.00010
           X3           0.00000   0.05571
           Y3           0.00000  -0.06440   0.49080
           Z3           0.00000   0.00000   0.00000  -0.00010
 ITU=  0
     Eigenvalues ---    0.14359   0.73375   0.89552
 Angle between quadratic step and forces=  43.27 degrees.
 ClnCor:  largest displacement from symmetrization is 2.93D-15 for atom     3.
 Linear search not attempted -- first point.
 ClnCor:  largest displacement from symmetrization is 4.44D-16 for atom     3.
 TrRot= -0.000008 -0.000008  0.000000  0.000000  0.000000  0.000000
 Variable       Old X    -DE/DX   Delta X   Delta X   Delta X     New X
                                 (Linear)    (Quad)   (Total)
    X1        0.08371   0.00001   0.00000  -0.00001  -0.00002   0.08369
    Y1        0.08371   0.00001   0.00000  -0.00001  -0.00002   0.08369
    Z1        0.00000   0.00000   0.00000   0.00000   0.00000   0.00000
    X2        1.91732  -0.00002   0.00000  -0.00004  -0.00005   1.91726
    Y2       -0.11130   0.00001   0.00000   0.00008   0.00007  -0.11123
    Z2        0.00000   0.00000   0.00000   0.00000   0.00000   0.00000
    X3       -0.11130   0.00001   0.00000   0.00008   0.00007  -0.11123
    Y3        1.91732  -0.00002   0.00000  -0.00004  -0.00005   1.91726
    Z3        0.00000   0.00000   0.00000   0.00000   0.00000   0.00000
         Item               Value     Threshold  Converged?
 Maximum Force            0.000022     0.000450     YES
 RMS     Force            0.000013     0.000300     YES
 Maximum Displacement     0.000073     0.001800     YES
 RMS     Displacement     0.000043     0.001200     YES
 Predicted change in Energy=-1.866208D-09
 Optimization completed.
    -- Stationary point found.
 GradGradGradGradGradGradGradGradGradGradGradGradGradGradGradGradGradGrad

 1\1\GINC-HERRMANN-WS2\Freq\RBP86\def2SVP\H2O1\DEFFNER\18-Feb-2019\0\\#
  bp86 / def2svp freq\\bla\\0,1\O,0.044299,0.044299,0.\H,1.0146,-0.0588
 99,0.\H,-0.058899,1.0146,0.\\Version=EM64L-G09RevD.01\State=1-A1\HF=-7
 6.3592161\RMSD=8.017e-09\RMSF=1.296e-05\ZeroPoint=0.0206497\Thermal=0.
 0234854\Dipole=0.5520703,0.5520703,0.\DipoleDeriv=-0.3403612,0.0608392
 ,0.,0.0608392,-0.3403612,0.,0.,0.,-0.6738821,0.0830023,-0.0074829,0.,-
 0.0533563,0.2573589,0.,0.,0.,0.3369411,0.2573589,-0.0533563,0.,-0.0074
 829,0.0830023,0.,0.,0.,0.3369411\Polar=6.6008201,-0.8813803,6.6008201,
 0.,0.,3.1741854\PG=C02V [C2(O1),SGV(H2)]\NImag=0\\0.52376945,-0.088039
 15,0.52376945,0.,0.,-0.00019772,-0.47943030,0.07370648,0.,0.49080496,0
 .01433267,-0.04433915,0.,-0.06440062,0.05571381,0.,0.,0.00009886,0.,0.
 ,-0.00010346,-0.04433915,0.01433267,0.,-0.01137466,0.05006795,0.,0.055
 71381,0.07370648,-0.47943030,0.,-0.00930586,-0.01137466,0.,-0.06440062
 ,0.49080496,0.,0.,0.00009886,0.,0.,0.00000460,0.,0.,-0.00010346\\-0.00
 001010,-0.00001010,0.,0.00002241,-0.00001232,0.,-0.00001232,0.00002241
 ,0.\\\@


 THE MOST SERIOUS THREAT TO THE SURVIVAL OF MANKIND IS NOT NOW
 IGNORANCE IN THE TRADITIONAL SENSE,
 BUT A MORALLY NEUTRAL, AN INSENSITIVE OR INHIBITED HUMAN INTELLIGENCE.

                     -- MARGO JEFFERSON IN NEWSWEEK, SEPTEMBER 2, 1974
 Job cpu time:       0 days  0 hours  0 minutes  3.3 seconds.
 File lengths (MBytes):  RWF=      5 Int=      0 D2E=      0 Chk=      1 Scr=      1
 Normal termination of Gaussian 09 at Mon Feb 18 15:13:50 2019.
